version 3
run Wireless02-0-20241210-22:57:34-21228
attr configname Wireless02
attr datetime 20241210-22:57:34
attr datetimef 20241210-225734
attr experiment Wireless02
attr inifile omnetpp.ini
attr iterationvars ""
attr iterationvarsd ""
attr iterationvarsf ""
attr measurement ""
attr network WirelessA
attr processid 21228
attr repetition 0
attr replication #0
attr resultdir results
attr runnumber 0
attr seedset 0
config image-path ../inet4.5/images
config description "Setting up some animations"
config extends Wireless01
config *.hostA.wlan[0].radio.displayCommunicationRange true
config *.visualizer.sceneVisualizer.descriptionFigure "\"title\""
config *.visualizer.mediumVisualizer.displaySignals true
config *.visualizer.physicalLinkVisualizer.displayLinks true
config *.visualizer.physicalLinkVisualizer.packetFilter "\"UDPData*\""
config description "Two hosts communicating wirelessly"
config network WirelessA
config sim-time-limit 20s
config *.host*.ipv4.arp.typename GlobalArp
config *.hostA.numApps 1
config *.hostA.app[0].typename UdpBasicApp
config *.hostA.app[0].destAddresses "\"hostB\""
config *.hostA.app[0].destPort 5000
config *.hostA.app[0].messageLength 500B
config *.hostA.app[0].sendInterval exponential(12ms)
config *.hostA.app[0].packetName "\"UDPData\""
config *.hostB.numApps 1
config *.hostB.app[0].typename UdpSink
config *.hostB.app[0].localPort 5000
config *.host*.wlan[0].typename AckingWirelessInterface
config *.host*.wlan[0].mac.useAck false
config *.host*.wlan[0].mac.fullDuplex false
config *.host*.wlan[0].radio.transmitter.communicationRange 500m
config *.host*.wlan[0].radio.receiver.ignoreInterference true
config *.host*.wlan[0].mac.headerLength 23B
config *.host*.**.bitrate 10Mbps
config *.*.radioMedium.maxTransmissionDuration 5s

vector 0 WirelessA.hostA.wlan[0].queue queueLength:vector ETV
attr autoWarmupFilter false
attr interpolationmode sample-hold
attr recordingmode vector
attr source "warmup(atomic(constant0(packetPushEnded) + count(packetPushStarted) - count(packetPulled) - count(packetRemoved) - count(packetDropped)))"
attr title "queue length"
attr unit pk
vector 1 WirelessA.hostA.wlan[0].queue queueBitLength:vector ETV
attr autoWarmupFilter false
attr interpolationmode sample-hold
attr recordingmode vector
attr source "warmup(atomic(constant0(packetPushEnded) + sum(packetLength(packetPushStarted)) - sum(packetLength(packetPulled)) - sum(packetLength(packetRemoved)) - sum(packetLength(packetDropped))))"
attr title "queue bit length"
attr unit b
vector 2 WirelessA.hostA.udp passedUpPk:vector(count) ETV
attr interpolationmode none
attr recordingmode vector(count)
attr source packetSentToUpper
attr title "packets passed up, count"
vector 3 WirelessA.hostA.udp droppedPkWrongPort:vector(count) ETV
attr interpolationmode none
attr recordingmode vector(count)
attr source packetDropReasonIsNoPortFound(packetDropped)
attr title "packets dropped (wrong port), count"
vector 4 WirelessA.hostA.udp droppedPkBadChecksum:vector(count) ETV
attr interpolationmode none
attr recordingmode vector(count)
attr source packetDropReasonIsIncorrectlyReceived(packetDropped)
attr title "packets dropped (checksum error), count"
vector 5 WirelessA.hostB.wlan[0].queue queueLength:vector ETV
attr autoWarmupFilter false
attr interpolationmode sample-hold
attr recordingmode vector
attr source "warmup(atomic(constant0(packetPushEnded) + count(packetPushStarted) - count(packetPulled) - count(packetRemoved) - count(packetDropped)))"
attr title "queue length"
attr unit pk
vector 6 WirelessA.hostB.wlan[0].queue queueBitLength:vector ETV
attr autoWarmupFilter false
attr interpolationmode sample-hold
attr recordingmode vector
attr source "warmup(atomic(constant0(packetPushEnded) + sum(packetLength(packetPushStarted)) - sum(packetLength(packetPulled)) - sum(packetLength(packetRemoved)) - sum(packetLength(packetDropped))))"
attr title "queue bit length"
attr unit b
vector 7 WirelessA.hostB.udp passedUpPk:vector(count) ETV
attr interpolationmode none
attr recordingmode vector(count)
attr source packetSentToUpper
attr title "packets passed up, count"
vector 8 WirelessA.hostB.udp droppedPkWrongPort:vector(count) ETV
attr interpolationmode none
attr recordingmode vector(count)
attr source packetDropReasonIsNoPortFound(packetDropped)
attr title "packets dropped (wrong port), count"
vector 9 WirelessA.hostB.udp droppedPkBadChecksum:vector(count) ETV
attr interpolationmode none
attr recordingmode vector(count)
attr source packetDropReasonIsIncorrectlyReceived(packetDropped)
attr title "packets dropped (checksum error), count"
vector 10 WirelessA.hostA.wlan[0].radio radioMode:vector ETV
attr interpolationmode sample-hold
attr recordingmode vector
attr source radioModeChanged
attr title "Radio mode"
vector 11 WirelessA.hostB.wlan[0].radio radioMode:vector ETV
attr interpolationmode sample-hold
attr recordingmode vector
attr source radioModeChanged
attr title "Radio mode"
vector 12 WirelessA.hostA.wlan[0].radio receptionState:vector ETV
attr interpolationmode sample-hold
attr recordingmode vector
attr source receptionStateChanged
attr title "Radio reception state"
vector 13 WirelessA.hostB.wlan[0].radio receptionState:vector ETV
attr interpolationmode sample-hold
attr recordingmode vector
attr source receptionStateChanged
attr title "Radio reception state"
vector 14 WirelessA.hostA.app[0] packetSent:vector(packetBytes) ETV
attr interpolationmode none
attr recordingmode vector(packetBytes)
attr source packetSent
attr title "packets sent, packetBytes"
vector 15 WirelessA.hostA.udp packetSent:vector(packetBytes) ETV
attr interpolationmode none
attr recordingmode vector(packetBytes)
attr source packetSent
attr title "packets sent, packetBytes"
vector 16 WirelessA.hostA.wlan[0].queue incomingPacketLengths:vector ETV
attr interpolationmode none
attr recordingmode vector
attr source packetLength(packetPushStarted)
attr title "incoming packet lengths"
attr unit b
vector 17 WirelessA.hostA.wlan[0].queue queueingTime:vector ETV
attr interpolationmode none
attr recordingmode vector
attr source queueingTime(packetPulled)
attr title "queueing times"
attr unit s
vector 18 WirelessA.hostA.wlan[0].queue outgoingPacketLengths:vector ETV
attr interpolationmode none
attr recordingmode vector
attr source packetLength(packetPulled)
attr title "outgoing packet lengths"
attr unit b
vector 19 WirelessA.hostA.wlan[0].mac rcvdPkFromHl:vector(packetBytes) ETV
attr interpolationmode none
attr recordingmode vector(packetBytes)
attr source packetReceivedFromUpper
attr title "packets received from higher layer, packetBytes"
vector 20 WirelessA.hostA.wlan[0].radio transmissionState:vector ETV
attr interpolationmode sample-hold
attr recordingmode vector
attr source transmissionStateChanged
attr title "Radio transmission state"
vector 21 WirelessA.hostA.wlan[0].mac sentDownPk:vector(packetBytes) ETV
attr interpolationmode none
attr recordingmode vector(packetBytes)
attr source packetSentToLower
attr title "packets sent to lower layer, packetBytes"
vector 22 WirelessA.hostB.wlan[0].mac rcvdPkFromLl:vector(packetBytes) ETV
attr interpolationmode none
attr recordingmode vector(packetBytes)
attr source packetReceivedFromLower
attr title "packets received from lower layer, packetBytes"
vector 23 WirelessA.hostB.wlan[0].mac passedUpPk:vector(packetBytes) ETV
attr interpolationmode none
attr recordingmode vector(packetBytes)
attr source packetSentToUpper
attr title "packets passed to higher layer, packetBytes"
vector 24 WirelessA.hostB.udp packetReceived:vector(packetBytes) ETV
attr interpolationmode none
attr recordingmode vector(packetBytes)
attr source packetReceived
attr title "packets received, packetBytes"
vector 25 WirelessA.hostB.app[0] packetReceived:vector(packetBytes) ETV
attr interpolationmode none
attr recordingmode vector(packetBytes)
attr source packetReceived
attr title "packets received, packetBytes"
vector 26 WirelessA.hostB.app[0] endToEndDelay:vector ETV
attr interpolationmode none
attr recordingmode vector
attr source dataAge(packetReceived)
attr title "end-to-end delay"
attr unit s
vector 27 WirelessA.hostB.app[0] rcvdPkSeqNo:vector ETV
attr interpolationmode none
attr recordingmode vector
attr source appPkSeqNo(packetReceived)
attr title "received packet sequence number"
vector 28 WirelessA.hostA.wlan[0].queue incomingDataRate:vector ETV
attr interpolationmode linear
attr recordingmode vector
attr source throughput(packetPushStarted)
attr title "incoming datarate"
attr unit bps
vector 29 WirelessA.hostA.wlan[0].queue outgoingDataRate:vector ETV
attr interpolationmode linear
attr recordingmode vector
attr source throughput(packetPulled)
attr title "outgoing datarate"
attr unit bps
vector 30 WirelessA.hostB.app[0] throughput:vector ETV
attr recordingmode vector
attr source throughput(packetReceived)
attr title throughput
attr unit bps
0	0	0	0
0	0	0	0
0	0	0	0
0	0	0	0
0	0	0	0
0	8	0.022315250545	0
0	20	0.028927832385	0
0	34	0.041385743993	0
0	46	0.048291974356	0
0	60	0.07497426742	0
0	73	0.114753214779	0
0	85	0.120556440038	0
0	99	0.139383193449	0
0	111	0.148415282809	0
0	124	0.158488477044	0
0	138	0.189667526074	0
0	150	0.19055175034	0
0	162	0.191645682653	0
0	168	0.191890789714	1
0	169	0.192096082653	0
0	190	0.213340641675	0
0	203	0.231410052779	0
0	216	0.255893823874	0
0	229	0.302036486304	0
0	242	0.321299360989	0
0	254	0.328726514505	0
0	268	0.346924946193	0
0	280	0.348435439106	0
0	294	0.360692621598	0
0	306	0.362549377764	0
0	320	0.3972824235	0
0	332	0.406136351001	0
0	345	0.412563139644	0
0	357	0.41625050387	0
0	372	0.434109561779	0
0	384	0.441418550857	0
0	397	0.451502567324	0
0	403	0.451730190154	1
0	405	0.451952967324	0
0	424	0.463266761423	0
0	437	0.474630721549	0
0	450	0.486145297277	0
0	463	0.520680277532	0
0	476	0.534421944988	0
0	488	0.539768166929	0
0	501	0.54666255581	0
0	515	0.561015849403	0
0	527	0.561761232889	0
0	541	0.5749481825	0
0	554	0.588275351848	0
0	566	0.591109832321	0
0	578	0.592766176582	0
0	590	0.597313720153	0
0	604	0.602738944876	0
0	618	0.612872078398	0
0	631	0.619799970128	0
0	645	0.673253932282	0
0	657	0.67454555358	0
0	669	0.677357171805	0
0	681	0.67946813435	0
0	697	0.692173046931	0
0	709	0.69567801333	0
0	722	0.703213312302	0
0	735	0.706576636404	0
0	747	0.708654165878	0
0	759	0.710057630796	0
0	775	0.722874497162	0
0	787	0.724659044393	0
0	799	0.727285611551	0
0	811	0.732805779044	0
0	827	0.753449758937	0
0	839	0.754675497515	0
0	853	0.776513324546	0
0	865	0.77772574185	0
1	0	0	0
1	0	0	0
1	0	0	0
1	0	0	0
1	0	0	0
1	8	0.022315250545	0
1	20	0.028927832385	0
1	34	0.041385743993	0
1	46	0.048291974356	0
1	60	0.07497426742	0
1	73	0.114753214779	0
1	85	0.120556440038	0
1	99	0.139383193449	0
1	111	0.148415282809	0
1	124	0.158488477044	0
1	138	0.189667526074	0
1	150	0.19055175034	0
1	162	0.191645682653	0
1	168	0.191890789714	4224
1	169	0.192096082653	0
1	190	0.213340641675	0
1	203	0.231410052779	0
1	216	0.255893823874	0
1	229	0.302036486304	0
1	242	0.321299360989	0
1	254	0.328726514505	0
1	268	0.346924946193	0
1	280	0.348435439106	0
1	294	0.360692621598	0
1	306	0.362549377764	0
1	320	0.3972824235	0
1	332	0.406136351001	0
1	345	0.412563139644	0
1	357	0.41625050387	0
1	372	0.434109561779	0
1	384	0.441418550857	0
1	397	0.451502567324	0
1	403	0.451730190154	4224
1	405	0.451952967324	0
1	424	0.463266761423	0
1	437	0.474630721549	0
1	450	0.486145297277	0
1	463	0.520680277532	0
1	476	0.534421944988	0
1	488	0.539768166929	0
1	501	0.54666255581	0
1	515	0.561015849403	0
1	527	0.561761232889	0
1	541	0.5749481825	0
1	554	0.588275351848	0
1	566	0.591109832321	0
1	578	0.592766176582	0
1	590	0.597313720153	0
1	604	0.602738944876	0
1	618	0.612872078398	0
1	631	0.619799970128	0
1	645	0.673253932282	0
1	657	0.67454555358	0
1	669	0.677357171805	0
1	681	0.67946813435	0
1	697	0.692173046931	0
1	709	0.69567801333	0
1	722	0.703213312302	0
1	735	0.706576636404	0
1	747	0.708654165878	0
1	759	0.710057630796	0
1	775	0.722874497162	0
1	787	0.724659044393	0
1	799	0.727285611551	0
1	811	0.732805779044	0
1	827	0.753449758937	0
1	839	0.754675497515	0
1	853	0.776513324546	0
1	865	0.77772574185	0
2	0	0	0
3	0	0	0
4	0	0	0
5	0	0	0
5	0	0	0
5	0	0	0
5	0	0	0
5	0	0	0
6	0	0	0
6	0	0	0
6	0	0	0
6	0	0	0
6	0	0	0
7	0	0	0
7	15	0.022766984801	1
7	27	0.029379566641	2
7	41	0.041837478249	3
7	53	0.048743708612	4
7	67	0.075426001676	5
7	80	0.115204949035	6
7	92	0.121008174294	7
7	106	0.139834927705	8
7	118	0.148867017065	9
7	132	0.1589402113	10
7	145	0.19011926033	11
7	157	0.191003484596	12
7	175	0.192097416909	13
7	181	0.192547816909	14
7	197	0.213792375931	15
7	210	0.231861787035	16
7	223	0.25634555813	17
7	236	0.30248822056	18
7	249	0.321751095245	19
7	261	0.329178248761	20
7	275	0.347376680449	21
7	287	0.348887173362	22
7	301	0.361144355854	23
7	313	0.36300111202	24
7	327	0.397734157756	25
7	339	0.406588085257	26
7	352	0.4130148739	27
7	365	0.416702238126	28
7	379	0.434561296035	29
7	391	0.441870285113	30
7	411	0.45195430158	31
7	417	0.45240470158	32
7	431	0.463718495679	33
7	444	0.475082455805	34
7	457	0.486597031533	35
7	470	0.521132011788	36
7	483	0.534873679244	37
7	495	0.540219901185	38
7	508	0.547114290066	39
7	522	0.561467583659	40
7	534	0.562212967145	41
7	548	0.575399916756	42
7	561	0.588727086104	43
7	573	0.591561566577	44
7	585	0.593217910838	45
7	597	0.597765454409	46
7	611	0.603190679132	47
7	626	0.613323812654	48
7	638	0.620251704384	49
7	652	0.673705666538	50
7	664	0.674997287836	51
7	676	0.677808906061	52
7	688	0.679919868606	53
7	704	0.692624781187	54
7	716	0.696129747586	55
7	729	0.703665046558	56
7	742	0.70702837066	57
7	754	0.709105900134	58
7	766	0.710509365052	59
7	782	0.723326231418	60
7	794	0.725110778649	61
7	806	0.727737345807	62
7	818	0.7332575133	63
7	834	0.753901493193	64
7	846	0.755127231771	65
7	860	0.776965058802	66
7	872	0.778177476106	67
8	0	0	0
9	0	0	0
10	0	0	0
10	0	0	0
10	0	0	2
10	8	0.022315250545	3
10	11	0.022765650545	2
10	20	0.028927832385	3
10	23	0.029378232385	2
10	34	0.041385743993	3
10	37	0.041836143993	2
10	46	0.048291974356	3
10	49	0.048742374356	2
10	60	0.07497426742	3
10	63	0.07542466742	2
10	73	0.114753214779	3
10	76	0.115203614779	2
10	85	0.120556440038	3
10	88	0.121006840038	2
10	99	0.139383193449	3
10	102	0.139833593449	2
10	111	0.148415282809	3
10	114	0.148865682809	2
10	124	0.158488477044	3
10	128	0.158938877044	2
10	138	0.189667526074	3
10	141	0.190117926074	2
10	150	0.19055175034	3
10	153	0.19100215034	2
10	162	0.191645682653	3
10	169	0.192096082653	2
10	169	0.192096082653	3
10	177	0.192546482653	2
10	190	0.213340641675	3
10	193	0.213791041675	2
10	203	0.231410052779	3
10	206	0.231860452779	2
10	216	0.255893823874	3
10	219	0.256344223874	2
10	229	0.302036486304	3
10	232	0.302486886304	2
10	242	0.321299360989	3
10	245	0.321749760989	2
10	254	0.328726514505	3
10	257	0.329176914505	2
10	268	0.346924946193	3
10	271	0.347375346193	2
10	280	0.348435439106	3
10	283	0.348885839106	2
10	294	0.360692621598	3
10	297	0.361143021598	2
10	306	0.362549377764	3
10	309	0.362999777764	2
10	320	0.3972824235	3
10	323	0.3977328235	2
10	332	0.406136351001	3
10	335	0.406586751001	2
10	345	0.412563139644	3
10	348	0.413013539644	2
10	357	0.41625050387	3
10	361	0.41670090387	2
10	372	0.434109561779	3
10	375	0.434559961779	2
10	384	0.441418550857	3
10	387	0.441868950857	2
10	397	0.451502567324	3
10	405	0.451952967324	2
10	405	0.451952967324	3
10	413	0.452403367324	2
10	424	0.463266761423	3
10	427	0.463717161423	2
10	437	0.474630721549	3
10	440	0.475081121549	2
10	450	0.486145297277	3
10	453	0.486595697277	2
10	463	0.520680277532	3
10	466	0.521130677532	2
10	476	0.534421944988	3
10	479	0.534872344988	2
10	488	0.539768166929	3
10	491	0.540218566929	2
10	501	0.54666255581	3
10	504	0.54711295581	2
10	515	0.561015849403	3
10	518	0.561466249403	2
10	527	0.561761232889	3
10	530	0.562211632889	2
10	541	0.5749481825	3
10	544	0.5753985825	2
10	554	0.588275351848	3
10	557	0.588725751848	2
10	566	0.591109832321	3
10	569	0.591560232321	2
10	578	0.592766176582	3
10	581	0.593216576582	2
10	590	0.597313720153	3
10	593	0.597764120153	2
10	604	0.602738944876	3
10	607	0.603189344876	2
10	618	0.612872078398	3
10	622	0.613322478398	2
10	631	0.619799970128	3
10	634	0.620250370128	2
10	645	0.673253932282	3
10	648	0.673704332282	2
10	657	0.67454555358	3
10	660	0.67499595358	2
10	669	0.677357171805	3
10	672	0.677807571805	2
10	681	0.67946813435	3
10	684	0.67991853435	2
10	697	0.692173046931	3
10	700	0.692623446931	2
10	709	0.69567801333	3
10	712	0.69612841333	2
10	722	0.703213312302	3
10	725	0.703663712302	2
10	735	0.706576636404	3
10	738	0.707027036404	2
10	747	0.708654165878	3
10	750	0.709104565878	2
10	759	0.710057630796	3
10	762	0.710508030796	2
10	775	0.722874497162	3
10	778	0.723324897162	2
10	787	0.724659044393	3
10	790	0.725109444393	2
10	799	0.727285611551	3
10	802	0.727736011551	2
10	811	0.732805779044	3
10	814	0.733256179044	2
10	827	0.753449758937	3
10	830	0.753900158937	2
10	839	0.754675497515	3
10	842	0.755125897515	2
10	853	0.776513324546	3
10	856	0.776963724546	2
10	865	0.77772574185	3
10	868	0.77817614185	2
11	0	0	0
11	0	0	0
11	0	0	2
12	0	0	1
12	8	0.022315250545	0
12	11	0.022765650545	1
12	20	0.028927832385	0
12	23	0.029378232385	1
12	34	0.041385743993	0
12	37	0.041836143993	1
12	46	0.048291974356	0
12	49	0.048742374356	1
12	60	0.07497426742	0
12	63	0.07542466742	1
12	73	0.114753214779	0
12	76	0.115203614779	1
12	85	0.120556440038	0
12	88	0.121006840038	1
12	99	0.139383193449	0
12	102	0.139833593449	1
12	111	0.148415282809	0
12	114	0.148865682809	1
12	124	0.158488477044	0
12	128	0.158938877044	1
12	138	0.189667526074	0
12	141	0.190117926074	1
12	150	0.19055175034	0
12	153	0.19100215034	1
12	162	0.191645682653	0
12	169	0.192096082653	1
12	169	0.192096082653	0
12	177	0.192546482653	1
12	190	0.213340641675	0
12	193	0.213791041675	1
12	203	0.231410052779	0
12	206	0.231860452779	1
12	216	0.255893823874	0
12	219	0.256344223874	1
12	229	0.302036486304	0
12	232	0.302486886304	1
12	242	0.321299360989	0
12	245	0.321749760989	1
12	254	0.328726514505	0
12	257	0.329176914505	1
12	268	0.346924946193	0
12	271	0.347375346193	1
12	280	0.348435439106	0
12	283	0.348885839106	1
12	294	0.360692621598	0
12	297	0.361143021598	1
12	306	0.362549377764	0
12	309	0.362999777764	1
12	320	0.3972824235	0
12	323	0.3977328235	1
12	332	0.406136351001	0
12	335	0.406586751001	1
12	345	0.412563139644	0
12	348	0.413013539644	1
12	357	0.41625050387	0
12	361	0.41670090387	1
12	372	0.434109561779	0
12	375	0.434559961779	1
12	384	0.441418550857	0
12	387	0.441868950857	1
12	397	0.451502567324	0
12	405	0.451952967324	1
12	405	0.451952967324	0
12	413	0.452403367324	1
12	424	0.463266761423	0
12	427	0.463717161423	1
12	437	0.474630721549	0
12	440	0.475081121549	1
12	450	0.486145297277	0
12	453	0.486595697277	1
12	463	0.520680277532	0
12	466	0.521130677532	1
12	476	0.534421944988	0
12	479	0.534872344988	1
12	488	0.539768166929	0
12	491	0.540218566929	1
12	501	0.54666255581	0
12	504	0.54711295581	1
12	515	0.561015849403	0
12	518	0.561466249403	1
12	527	0.561761232889	0
12	530	0.562211632889	1
12	541	0.5749481825	0
12	544	0.5753985825	1
12	554	0.588275351848	0
12	557	0.588725751848	1
12	566	0.591109832321	0
12	569	0.591560232321	1
12	578	0.592766176582	0
12	581	0.593216576582	1
12	590	0.597313720153	0
12	593	0.597764120153	1
12	604	0.602738944876	0
12	607	0.603189344876	1
12	618	0.612872078398	0
12	622	0.613322478398	1
12	631	0.619799970128	0
12	634	0.620250370128	1
12	645	0.673253932282	0
12	648	0.673704332282	1
12	657	0.67454555358	0
12	660	0.67499595358	1
12	669	0.677357171805	0
12	672	0.677807571805	1
12	681	0.67946813435	0
12	684	0.67991853435	1
12	697	0.692173046931	0
12	700	0.692623446931	1
12	709	0.69567801333	0
12	712	0.69612841333	1
12	722	0.703213312302	0
12	725	0.703663712302	1
12	735	0.706576636404	0
12	738	0.707027036404	1
12	747	0.708654165878	0
12	750	0.709104565878	1
12	759	0.710057630796	0
12	762	0.710508030796	1
12	775	0.722874497162	0
12	778	0.723324897162	1
12	787	0.724659044393	0
12	790	0.725109444393	1
12	799	0.727285611551	0
12	802	0.727736011551	1
12	811	0.732805779044	0
12	814	0.733256179044	1
12	827	0.753449758937	0
12	830	0.753900158937	1
12	839	0.754675497515	0
12	842	0.755125897515	1
12	853	0.776513324546	0
12	856	0.776963724546	1
12	865	0.77772574185	0
12	868	0.77817614185	1
13	0	0	1
13	10	0.022316584801	3
13	12	0.022766984801	1
13	22	0.028929166641	3
13	24	0.029379566641	1
13	36	0.041387078249	3
13	38	0.041837478249	1
13	48	0.048293308612	3
13	50	0.048743708612	1
13	62	0.074975601676	3
13	64	0.075426001676	1
13	75	0.114754549035	3
13	77	0.115204949035	1
13	87	0.120557774294	3
13	89	0.121008174294	1
13	101	0.139384527705	3
13	103	0.139834927705	1
13	113	0.148416617065	3
13	115	0.148867017065	1
13	126	0.1584898113	3
13	129	0.1589402113	1
13	140	0.18966886033	3
13	142	0.19011926033	1
13	152	0.190553084596	3
13	154	0.191003484596	1
13	164	0.191647016909	3
13	171	0.192097416909	2
13	172	0.192097416909	3
13	178	0.192547816909	1
13	192	0.213341975931	3
13	194	0.213792375931	1
13	205	0.231411387035	3
13	207	0.231861787035	1
13	218	0.25589515813	3
13	220	0.25634555813	1
13	231	0.30203782056	3
13	233	0.30248822056	1
13	244	0.321300695245	3
13	246	0.321751095245	1
13	256	0.328727848761	3
13	258	0.329178248761	1
13	270	0.346926280449	3
13	272	0.347376680449	1
13	282	0.348436773362	3
13	284	0.348887173362	1
13	296	0.360693955854	3
13	298	0.361144355854	1
13	308	0.36255071202	3
13	310	0.36300111202	1
13	322	0.397283757756	3
13	324	0.397734157756	1
13	334	0.406137685257	3
13	336	0.406588085257	1
13	347	0.4125644739	3
13	349	0.4130148739	1
13	359	0.416251838126	3
13	362	0.416702238126	1
13	374	0.434110896035	3
13	376	0.434561296035	1
13	386	0.441419885113	3
13	388	0.441870285113	1
13	399	0.45150390158	3
13	407	0.45195430158	2
13	408	0.45195430158	3
13	414	0.45240470158	1
13	426	0.463268095679	3
13	428	0.463718495679	1
13	439	0.474632055805	3
13	441	0.475082455805	1
13	452	0.486146631533	3
13	454	0.486597031533	1
13	465	0.520681611788	3
13	467	0.521132011788	1
13	478	0.534423279244	3
13	480	0.534873679244	1
13	490	0.539769501185	3
13	492	0.540219901185	1
13	503	0.546663890066	3
13	505	0.547114290066	1
13	517	0.561017183659	3
13	519	0.561467583659	1
13	529	0.561762567145	3
13	531	0.562212967145	1
13	543	0.574949516756	3
13	545	0.575399916756	1
13	556	0.588276686104	3
13	558	0.588727086104	1
13	568	0.591111166577	3
13	570	0.591561566577	1
13	580	0.592767510838	3
13	582	0.593217910838	1
13	592	0.597315054409	3
13	594	0.597765454409	1
13	606	0.602740279132	3
13	608	0.603190679132	1
13	620	0.612873412654	3
13	623	0.613323812654	1
13	633	0.619801304384	3
13	635	0.620251704384	1
13	647	0.673255266538	3
13	649	0.673705666538	1
13	659	0.674546887836	3
13	661	0.674997287836	1
13	671	0.677358506061	3
13	673	0.677808906061	1
13	683	0.679469468606	3
13	685	0.679919868606	1
13	699	0.692174381187	3
13	701	0.692624781187	1
13	711	0.695679347586	3
13	713	0.696129747586	1
13	724	0.703214646558	3
13	726	0.703665046558	1
13	737	0.70657797066	3
13	739	0.70702837066	1
13	749	0.708655500134	3
13	751	0.709105900134	1
13	761	0.710058965052	3
13	763	0.710509365052	1
13	777	0.722875831418	3
13	779	0.723326231418	1
13	789	0.724660378649	3
13	791	0.725110778649	1
13	801	0.727286945807	3
13	803	0.727737345807	1
13	813	0.7328071133	3
13	815	0.7332575133	1
13	829	0.753451093193	3
13	831	0.753901493193	1
13	841	0.754676831771	3
13	843	0.755127231771	1
13	855	0.776514658802	3
13	857	0.776965058802	1
13	867	0.777727076106	3
13	869	0.778177476106	1
14	4	0.022315250545	500
14	17	0.028927832385	500
14	31	0.041385743993	500
14	43	0.048291974356	500
14	57	0.07497426742	500
14	70	0.114753214779	500
14	82	0.120556440038	500
14	96	0.139383193449	500
14	108	0.148415282809	500
14	121	0.158488477044	500
14	135	0.189667526074	500
14	147	0.19055175034	500
14	159	0.191645682653	500
14	165	0.191890789714	500
14	187	0.213340641675	500
14	200	0.231410052779	500
14	213	0.255893823874	500
14	226	0.302036486304	500
14	239	0.321299360989	500
14	251	0.328726514505	500
14	265	0.346924946193	500
14	277	0.348435439106	500
14	291	0.360692621598	500
14	303	0.362549377764	500
14	317	0.3972824235	500
14	329	0.406136351001	500
14	342	0.412563139644	500
14	354	0.41625050387	500
14	369	0.434109561779	500
14	381	0.441418550857	500
14	394	0.451502567324	500
14	400	0.451730190154	500
14	421	0.463266761423	500
14	434	0.474630721549	500
14	447	0.486145297277	500
14	460	0.520680277532	500
14	473	0.534421944988	500
14	485	0.539768166929	500
14	498	0.54666255581	500
14	512	0.561015849403	500
14	524	0.561761232889	500
14	538	0.5749481825	500
14	551	0.588275351848	500
14	563	0.591109832321	500
14	575	0.592766176582	500
14	587	0.597313720153	500
14	601	0.602738944876	500
14	615	0.612872078398	500
14	628	0.619799970128	500
14	642	0.673253932282	500
14	654	0.67454555358	500
14	666	0.677357171805	500
14	678	0.67946813435	500
14	694	0.692173046931	500
14	706	0.69567801333	500
14	719	0.703213312302	500
14	732	0.706576636404	500
14	744	0.708654165878	500
14	756	0.710057630796	500
14	772	0.722874497162	500
14	784	0.724659044393	500
14	796	0.727285611551	500
14	808	0.732805779044	500
14	824	0.753449758937	500
14	836	0.754675497515	500
14	850	0.776513324546	500
14	862	0.77772574185	500
14	876	0.822714119365	500
15	6	0.022315250545	508
15	18	0.028927832385	508
15	32	0.041385743993	508
15	44	0.048291974356	508
15	58	0.07497426742	508
15	71	0.114753214779	508
15	83	0.120556440038	508
15	97	0.139383193449	508
15	109	0.148415282809	508
15	122	0.158488477044	508
15	136	0.189667526074	508
15	148	0.19055175034	508
15	160	0.191645682653	508
15	166	0.191890789714	508
15	188	0.213340641675	508
15	201	0.231410052779	508
15	214	0.255893823874	508
15	227	0.302036486304	508
15	240	0.321299360989	508
15	252	0.328726514505	508
15	266	0.346924946193	508
15	278	0.348435439106	508
15	292	0.360692621598	508
15	304	0.362549377764	508
15	318	0.3972824235	508
15	330	0.406136351001	508
15	343	0.412563139644	508
15	355	0.41625050387	508
15	370	0.434109561779	508
15	382	0.441418550857	508
15	395	0.451502567324	508
15	401	0.451730190154	508
15	422	0.463266761423	508
15	435	0.474630721549	508
15	448	0.486145297277	508
15	461	0.520680277532	508
15	474	0.534421944988	508
15	486	0.539768166929	508
15	499	0.54666255581	508
15	513	0.561015849403	508
15	525	0.561761232889	508
15	539	0.5749481825	508
15	552	0.588275351848	508
15	564	0.591109832321	508
15	576	0.592766176582	508
15	588	0.597313720153	508
15	602	0.602738944876	508
15	616	0.612872078398	508
15	629	0.619799970128	508
15	643	0.673253932282	508
15	655	0.67454555358	508
15	667	0.677357171805	508
15	679	0.67946813435	508
15	695	0.692173046931	508
15	707	0.69567801333	508
15	720	0.703213312302	508
15	733	0.706576636404	508
15	745	0.708654165878	508
15	757	0.710057630796	508
15	773	0.722874497162	508
15	785	0.724659044393	508
15	797	0.727285611551	508
15	809	0.732805779044	508
15	825	0.753449758937	508
15	837	0.754675497515	508
15	851	0.776513324546	508
15	863	0.77772574185	508
16	8	0.022315250545	4224
16	20	0.028927832385	4224
16	34	0.041385743993	4224
16	46	0.048291974356	4224
16	60	0.07497426742	4224
16	73	0.114753214779	4224
16	85	0.120556440038	4224
16	99	0.139383193449	4224
16	111	0.148415282809	4224
16	124	0.158488477044	4224
16	138	0.189667526074	4224
16	150	0.19055175034	4224
16	162	0.191645682653	4224
16	168	0.191890789714	4224
16	190	0.213340641675	4224
16	203	0.231410052779	4224
16	216	0.255893823874	4224
16	229	0.302036486304	4224
16	242	0.321299360989	4224
16	254	0.328726514505	4224
16	268	0.346924946193	4224
16	280	0.348435439106	4224
16	294	0.360692621598	4224
16	306	0.362549377764	4224
16	320	0.3972824235	4224
16	332	0.406136351001	4224
16	345	0.412563139644	4224
16	357	0.41625050387	4224
16	372	0.434109561779	4224
16	384	0.441418550857	4224
16	397	0.451502567324	4224
16	403	0.451730190154	4224
16	424	0.463266761423	4224
16	437	0.474630721549	4224
16	450	0.486145297277	4224
16	463	0.520680277532	4224
16	476	0.534421944988	4224
16	488	0.539768166929	4224
16	501	0.54666255581	4224
16	515	0.561015849403	4224
16	527	0.561761232889	4224
16	541	0.5749481825	4224
16	554	0.588275351848	4224
16	566	0.591109832321	4224
16	578	0.592766176582	4224
16	590	0.597313720153	4224
16	604	0.602738944876	4224
16	618	0.612872078398	4224
16	631	0.619799970128	4224
16	645	0.673253932282	4224
16	657	0.67454555358	4224
16	669	0.677357171805	4224
16	681	0.67946813435	4224
16	697	0.692173046931	4224
16	709	0.69567801333	4224
16	722	0.703213312302	4224
16	735	0.706576636404	4224
16	747	0.708654165878	4224
16	759	0.710057630796	4224
16	775	0.722874497162	4224
16	787	0.724659044393	4224
16	799	0.727285611551	4224
16	811	0.732805779044	4224
16	827	0.753449758937	4224
16	839	0.754675497515	4224
16	853	0.776513324546	4224
16	865	0.77772574185	4224
17	8	0.022315250545	0
17	20	0.028927832385	0
17	34	0.041385743993	0
17	46	0.048291974356	0
17	60	0.07497426742	0
17	73	0.114753214779	0
17	85	0.120556440038	0
17	99	0.139383193449	0
17	111	0.148415282809	0
17	124	0.158488477044	0
17	138	0.189667526074	0
17	150	0.19055175034	0